! TOUCHSTONE file generated by CST MICROWAVE STUDIO
! Date and time: Wed Sep 20 13:06:44 2023
! Project name: tomas_icrh_linear_2017-vacuum_1 (1).cst
! Parameters = {Bottom_flange_h=305; Bottom_flange_r=31.5; Bottom_flange_x=215; Box_w=180; CP=992; Ca=825; Cs=97.77; Feeder_Z0=50; Feeder_inner_r=5; Feeder_outer_h=180; Feeder_outer_r=19.5; Feeder_perp_plate_l=34.8569; Feeder_transition_plate_l=25; Inner_flange_h=370; Inner_flange_r=17.5; Limiters_corr=30; Limiters_d=51; Limiters_w=5; Outer_flange_h=375; Outer_flange_r=50; Pplus=1323; R_plasma=150; Rmaj=1560; Rmin=260; Section_l=800; Strap_alpha=40.2896; Strap_alpha_bottom=120; Strap_alpha_top=35; Strap_bend_r=1; Strap_h=280; Strap_radius=216.5; Strap_recess=5; Strap_th=5; Strap_w=90; Tap_feed_plate_tol=0.5; Tap_inner_r=5; Tap_outer_r=19.5; Top_flange_h=330; Top_flange_r=50; Top_flange_x=200; Vessel_th=20; backplate_w=180; box_d=41; box_gap=45; box_th=4; diel_eps=860; fmax=55; r_bend_feed=10; taP_feed_plate_l=6; tan_delta=0.6}
! Header version: 2018
! Port assignment regex: !\s*Touchstone port\s*([0-9]+)\s*=\s*(CST MWS port|CST DS port)\s*([0-9]+|Zmin|Zmax)\s*\(\"(.*)\"\)(\s*mode\s*([0-9]+))?.*
! Touchstone port assignment:
! Touchstone port 1 = CST MWS port 1 ("")
! Touchstone port 2 = CST MWS port 2 ("")
# MHz S RI R 50
0                   -0.999988418  9.53453145e-06   -3.4698309e-06  -4.0398561e-06  -4.64838729e-06 -4.02539165e-06     -0.999992389  8.76615455e-07
0.055               -0.999985999   0.00186898986  -2.88696477e-06  0.000593633948  -3.95613278e-06  0.000593653535     -0.999990714   0.00117316426
0.11                -0.999979766   0.00372842505  -4.83731872e-07   0.00119130608  -1.44975508e-06   0.00119132965     -0.999987341    0.0023454072
0.165               -0.999969717   0.00558782945   3.73961758e-06   0.00178897067    2.8707077e-06   0.00178899716     -0.999982268   0.00351760384
0.22                -0.999955853   0.00744719235   9.78281671e-06   0.00238662183   9.00519607e-06   0.00238665027     -0.999975492   0.00468975241
0.275               -0.999938175    0.0093065031   1.76455818e-05   0.00298425369    1.6953629e-05   0.00298428319     -0.999967012   0.00586185095
0.33                -0.999916682     0.011165751   2.73276119e-05   0.00358186037    2.6715904e-05   0.00358189014     -0.999956824   0.00703389736
0.385               -0.999891374    0.0130249254    3.8828589e-05     0.004179436   3.82918966e-05   0.00417946531     -0.999944928   0.00820588938
0.44                -0.999862253    0.0148840156   5.21481776e-05   0.00477697472    5.1681461e-05   0.00477700291     -0.999931322   0.00937782464
0.495               -0.999829318    0.0167430109   6.72860242e-05   0.00537447064   6.68844292e-05   0.00537449716     -0.999916004    0.0105497006
0.55                 -0.99979257    0.0186019007   8.42417581e-05   0.00597191792   8.39006116e-05   0.00597194225     -0.999898973    0.0117215147
0.605                -0.99975201    0.0204606742    0.00010301499    0.0065693107   0.000102729797    0.0065693324     -0.999880229    0.0128932643
0.66                -0.999707636    0.0223193209   0.000123605313   0.00716664311   0.000123371751   0.00716666182      -0.99985977    0.0140649464
0.715               -0.999659452    0.0241778301   0.000146012303    0.0077639093   0.000145826218   0.00776392472     -0.999837596    0.0152365583
0.77                -0.999607455     0.026036191   0.000170235514   0.00836110342   0.000170092921    0.0083611153     -0.999813705    0.0164080969
0.825               -0.999551649    0.0278943931   0.000196274486   0.00895821963   0.000196171561   0.00895822778     -0.999788098    0.0175795592
0.88                -0.999492032    0.0297524257   0.000224128738   0.00955525208   0.000224061815   0.00955525637     -0.999760773    0.0187509421
0.935               -0.999428605    0.0316102781    0.00025379777    0.0101521949    0.00025376334    0.0101521953     -0.999731731    0.0199222426
0.99                 -0.99936137    0.0334679397   0.000285281065    0.0107490423   0.000285275769    0.0107490387      -0.99970097    0.0210934572
1                   -0.999348736     0.033805675   0.000291200179    0.0108575493   0.000291199832     0.010857545     -0.999695193    0.0213063959
1.045               -0.999290376    0.0353241457   0.000318555199    0.0113453866    0.00031857583    0.0113453791     -0.999668514    0.0222637949
1.1                 -0.999215598    0.0371797147   0.000353631875    0.0119414877   0.000353675366    0.0119414763     -0.999634349    0.0234337732
1.155               -0.999137027    0.0390349001   0.000390514607    0.0125374243   0.000390578035    0.0125374092     -0.999598472    0.0246035547
1.21                -0.999054665    0.0408896915   0.000429202334    0.0131331908   0.000429282917    0.0131331721     -0.999560882    0.0257731359
1.265               -0.998968514    0.0427440784   0.000469693974    0.0137287814   0.000469789066    0.0137287593      -0.99952158    0.0269425135
1.32                -0.998878576    0.0445980502   0.000511988427    0.0143241904   0.000512095515     0.014324165     -0.999480566    0.0281116841
1.375               -0.998784852    0.0464515964   0.000556084575    0.0149194119   0.000556201278    0.0149193837     -0.999437841    0.0292806442
1.43                -0.998687345    0.0483047068    0.00060198128    0.0155144403   0.000602105345    0.0155144094     -0.999393406    0.0304493903
1.485               -0.998586056    0.0501573707   0.000649677386    0.0161092698   0.000649806685    0.0161092367     -0.999347259     0.031617919
1.54                -0.998480988    0.0520095779   0.000699171718    0.0167038947   0.000699304244    0.0167038596     -0.999299404    0.0327862267
1.595               -0.998372141    0.0538613179   0.000750463081    0.0172983093   0.000750596949    0.0172982727     -0.999249839    0.0339543099
1.65                -0.998259519    0.0557125805   0.000803550264    0.0178925078   0.000803683703    0.0178924702     -0.999198565    0.0351221649
1.705               -0.998143123    0.0575633553   0.000858432034    0.0184864847    0.00085856339    0.0184864463     -0.999145583    0.0362897883
1.76                -0.998022955    0.0594136322    0.00091510714    0.0190802341   0.000915234871    0.0190801955     -0.999090894    0.0374571763
1.815               -0.997899016    0.0612634012   0.000973574314    0.0196737505   0.000973696985    0.0196737121     -0.999034499    0.0386243255
1.87                -0.997771309    0.0631126521    0.00103383227    0.0202670281    0.00103394855    0.0202669903     -0.998976397    0.0397912322
1.925               -0.997639835    0.0649613753     0.0010958797    0.0208600612    0.00109598837    0.0208600247     -0.998916591    0.0409578927
1.98                -0.997504596    0.0668095612    0.00115971527    0.0214528442    0.00115981522    0.0214528094      -0.99885508    0.0421243034
2.035               -0.997365593    0.0686572006    0.00122533766    0.0220453715    0.00122542785    0.0220453389     -0.998791865    0.0432904606
2.09                -0.997222828    0.0705042847     0.0012927455    0.0226376374    0.00129282502    0.0226376075     -0.998726947    0.0444563607
2.145               -0.997076303    0.0723508058    0.00136193741    0.0232296363    0.00136200542    0.0232296096     -0.998660327        0.045622
2.2                 -0.996926018    0.0741967569    0.00143291202    0.0238213625    0.00143296779    0.0238213396     -0.998592007    0.0467873748
2.255               -0.996771975    0.0760421328    0.00150566792    0.0244128104     0.0015057108    0.0244127918     -0.998521985    0.0479524814
2.31                -0.996614179    0.0778869309    0.00158020372    0.0250039744    0.00158023315    0.0250039606     -0.998450265    0.0491173161
2.365               -0.996452633    0.0797311518    0.00165651801    0.0255948489    0.00165653351    0.0255948405     -0.998376846    0.0502818753
2.42                -0.996287122    0.0815773238    0.00173471707    0.0261862345    0.00173471826    0.0261862321     -0.998301625    0.0514477427
2.475               -0.996117877     0.083423042    0.00181470172    0.0267773556    0.00181468828    0.0267773595     -0.998224699    0.0526133988
2.53                -0.995944942    0.0852683045    0.00189647083    0.0273682066    0.00189644252    0.0273682174     -0.998146066    0.0537788397
2.585               -0.995768381    0.0871130778    0.00198002312    0.0279587822    0.00197997979    0.0279588004     -0.998065729    0.0549440616
2.64                -0.995588244    0.0889572697    0.00206535694    0.0285490772    0.00206529849    0.0285491033     -0.997983688    0.0561090609
2.695               -0.995404501    0.0908007499    0.00215247035    0.0291390859    0.00215239678    0.0291391203     -0.997899944    0.0572738337
2.75                 -0.99521703    0.0926434476    0.00224136164     0.029728802      0.002241273    0.0297288452     -0.997814497    0.0584383762
2.805               -0.995025715     0.094485405    0.00233202973    0.0303182192    0.00233192614    0.0303182716     -0.997727348    0.0596026847
2.86                -0.994830524    0.0963267084     0.0024244738    0.0309073316    0.00242435545    0.0309073937     -0.997638498    0.0607667554
2.915               -0.994631485    0.0981674147    0.00251869291    0.0314961338    0.00251856004    0.0314962059     -0.997547947    0.0619305844
2.97                -0.994428639     0.100007541     0.0026146859    0.0320846203    0.00261453881    0.0320847028     -0.997455697    0.0630941681
3.025               -0.994222019     0.101847081    0.00271245143    0.0326727857    0.00271229049    0.0326728789     -0.997361748    0.0642575025
3.08                -0.994011645     0.103686019     0.0028119881    0.0332606245    0.00281181372    0.0332607288     -0.997266101    0.0654205839
3.135                -0.99379753      0.10552434    0.00291329448    0.0338481313    0.00291310713    0.0338482469     -0.997168757    0.0665834086
3.19                -0.993579684     0.107362028    0.00301636912    0.0344353005    0.00301616931    0.0344354278     -0.997069717    0.0677459727
3.245               -0.993358111     0.109199067    0.00312121053    0.0350221266    0.00312099882    0.0350222657     -0.996968981    0.0689082724
3.3                 -0.993132816     0.111035443    0.00322781722     0.035608604    0.00322759423    0.0356087552     -0.996866551     0.070070304
3.355               -0.992903803     0.112871143     0.0033361877    0.0361947273    0.00333595407    0.0361948907     -0.996762427    0.0712320636
3.41                -0.992671074     0.114706156    0.00344632045    0.0367804909    0.00344607685    0.0367806666      -0.99665661    0.0723935475
3.465               -0.992434633     0.116540468    0.00355821391    0.0373658894    0.00355796108    0.0373660774     -0.996549102    0.0735547519
3.52                -0.992194481      0.11837407    0.00367186655     0.037950917    0.00367160523    0.0379511176     -0.996439903     0.074715673
3.575               -0.991950623      0.12020695    0.00378727678    0.0385355685    0.00378700775    0.0385357816     -0.996329014     0.075876307
3.63                -0.991703059     0.122039096    0.00390444302    0.0391198383     0.0039041671    0.0391200638     -0.996216436    0.0770366501
3.685               -0.991451794     0.123870498    0.00402336364    0.0397037209    0.00402308166    0.0397039588      -0.99610217    0.0781966985
3.74                 -0.99119683     0.125701147    0.00414403703    0.0402872108    0.00414374985     0.040287461     -0.995986217    0.0793564485
3.795                -0.99093817      0.12753103    0.00426646154    0.0408703026    0.00426617002    0.0408705649     -0.995868578    0.0805158963
3.85                -0.990675816     0.129360138    0.00439063549    0.0414529908    0.00439034053    0.0414532651     -0.995749254    0.0816750381
3.905               -0.990409771      0.13118846    0.00451655719    0.0420352699     0.0045162597     0.042035556     -0.995628246    0.0828338701
3.96                 -0.99014004     0.133015986    0.00464422495    0.0426171345    0.00464392583    0.0426174321     -0.995505556    0.0839923886
4.015               -0.989866623     0.134842706    0.00477363704    0.0431985793    0.00477333721     0.043198888     -0.995381184    0.0851505898
4.07                -0.989589525      0.13666861    0.00490479171    0.0437795987    0.00490449209    0.0437799182     -0.995255131    0.0863084699
4.125               -0.989308749     0.138493687    0.00503768719    0.0443601873     0.0050373887    0.0443605172     -0.995127398    0.0874660252
4.18                -0.989024297     0.140317928    0.00517232171    0.0449403398    0.00517202527    0.0449406797     -0.994997987    0.0886232519
4.235               -0.988736173     0.142141322    0.00530869346    0.0455200507    0.00530839998       0.0455204     -0.994866899    0.0897801463
4.29                 -0.98844438     0.143963859    0.00544680061    0.0460993147      0.005446511    0.0460996729     -0.994734135    0.0909367046
4.345               -0.988148921     0.145785529    0.00558664133    0.0466781263    0.00558635649    0.0466784929     -0.994599695     0.092092923
4.4                   -0.9878498     0.147606322    0.00572821376    0.0472564803    0.00572793455    0.0472568546     -0.994463582    0.0932487979
4.455                -0.98754702     0.149426229    0.00587151602    0.0478343712    0.00587124331    0.0478347526     -0.994325796    0.0944043255
4.51                -0.987240584     0.151245238     0.0060165462    0.0484117937    0.00601628083    0.0484121815     -0.994186338     0.095559502
4.565               -0.986930496     0.153063341    0.00616330239    0.0489887424    0.00616304518     0.048989136      -0.99404521    0.0967143237
4.62                -0.986616759     0.154880527    0.00631178266    0.0495652121    0.00631153439    0.0495656106     -0.993902413    0.0978687869
4.675               -0.986299376     0.156696786    0.00646198504    0.0501411974    0.00646174647       0.0501416     -0.993757948    0.0990228879
4.73                -0.985978352     0.158512108    0.00661390756     0.050716693    0.00661367943    0.0507170988     -0.993611817     0.100176623
4.785               -0.985653689     0.160326485    0.00676754823    0.0512916937    0.00676733124    0.0512921018      -0.99346402     0.101329988
4.84                -0.985325392     0.162139904    0.00692290503     0.051866194    0.00692269983    0.0518666036     -0.993314559      0.10248298
4.895               -0.984993463     0.163952358    0.00707997594    0.0524401887    0.00707978315    0.0524405989     -0.993163435     0.103635595
4.95                -0.984657907     0.165763836    0.00723875889    0.0530136727     0.0072385791    0.0530140824      -0.99301065     0.104787829
5.005               -0.984318728     0.167574328    0.00739925183    0.0535866405    0.00739908556    0.0535870489     -0.992856204     0.105939679
5.06                -0.983975928     0.169383824    0.00756145266     0.054159087    0.00756130042    0.0541594929     -0.992700099     0.107091141
5.115               -0.983629512     0.171192315    0.00772535928    0.0547310068     0.0077252215    0.0547314094     -0.992542337      0.10824221
5.17                -0.983279484     0.172999791    0.00789096956    0.0553023949    0.00789084663     0.055302793     -0.992382918     0.109392884
5.225               -0.982925846     0.174806242    0.00805828135     0.055873246    0.00805817363    0.0558736386     -0.992221845     0.110543159
5.28                -0.982568605     0.176611659     0.0082272925    0.0564435548    0.00822720028    0.0564439408     -0.992059118     0.111693032
5.335               -0.982207762     0.178416031    0.00839800081    0.0570133162    0.00839792433    0.0570136945     -0.991894739     0.112842497
5.39                -0.981843004     0.180220916    0.00857055431    0.0575830179    0.00857049376    0.0575833875     -0.991728564     0.113992551
5.445               -0.981474641     0.182024768    0.00874480657    0.0581521708    0.00874476208    0.0581525307     -0.991560734      0.11514221
5.5                 -0.981102676     0.183827576    0.00892075545    0.0587207698    0.00892072711    0.0587211187      -0.99139125     0.116291471
5.555               -0.980727112     0.185629331    0.00909839878    0.0592888095     0.0090983866    0.0592891465     -0.991220113     0.117440331
5.61                -0.980347955     0.187430024    0.00927773436    0.0598562849    0.00927773831    0.0598566088     -0.991047325     0.118588786
5.665               -0.979965208     0.189229644    0.00945875998    0.0604231907    0.00945877999    0.0604235005     -0.990872887     0.119736831
5.72                -0.979578874     0.191028182    0.00964147341    0.0609895218    0.00964150933    0.0609898165     -0.990696801     0.120884465
5.775               -0.979188958     0.192825629    0.00982587242     0.061555273    0.00982592404    0.0615555515     -0.990519068     0.122031682
5.83                -0.978795465     0.194621975     0.0100119547    0.0621204391     0.0100120218    0.0621207004     -0.990339689     0.123178479
5.885               -0.978398397     0.196417209      0.010199718    0.0626850151     0.0101998003    0.0626852582     -0.990158666     0.124324852
5.94                -0.977997759     0.198211323     0.0103891601    0.0632489958     0.0103892571    0.0632492198        -0.989976     0.125470799
5.995               -0.977593555     0.200004308     0.0105802785     0.063812376     0.0105803899    0.0638125799     -0.989791692     0.126616314
6.05                 -0.97718579     0.201796152      0.010773071    0.0643751508     0.0107731964    0.0643753337     -0.989605745     0.127761396
6.105               -0.976774467     0.203586848     0.0109675351    0.0649373149      0.010967674     0.064937476     -0.989418159     0.128906039
6.16                -0.976359591     0.205376385     0.0111636686    0.0654988634     0.0111638204    0.0654990017     -0.989228937     0.130050241
6.215               -0.975941166     0.207164755      0.011361469    0.0660597911     0.0113616331    0.0660599059     -0.989038078     0.131193998
6.27                -0.975519197     0.208951946      0.011560934     0.066620093     0.0115611097    0.0666201835     -0.988845586     0.132337305
6.325               -0.975093687     0.210737951      0.011762061     0.067179764     0.0117622477    0.0671798296     -0.988651461     0.133480161
6.38                -0.974664642      0.21252276     0.0119648476    0.0677387991     0.0119650447    0.0677388391     -0.988455705      0.13462256
6.435               -0.974232065     0.214306363     0.0121692914    0.0682971933      0.012169498     0.068297207      -0.98825832       0.1357645
6.49                -0.973795961      0.21608875       0.01237539    0.0688549416     0.0123756053    0.0688549284     -0.988059307     0.136905977
6.545               -0.973356334     0.217869914     0.0125831406    0.0694120389      0.012583364    0.0694119984     -0.987858667     0.138046987
6.6                 -0.972913189     0.219649843      0.012792541    0.0699684804     0.0127927715     0.069968412     -0.987656403     0.139187527
6.655               -0.972466531     0.221428529     0.0130035885    0.0705242609     0.0130038253    0.0705241642     -0.987452516     0.140327592
6.71                -0.972016364     0.223205963     0.0132162805    0.0710793756     0.0132165228    0.0710792502     -0.987247006     0.141467181
6.765               -0.971562692     0.224982135     0.0134306146    0.0716338195     0.0134308613    0.0716336651     -0.987039877     0.142606289
6.82                -0.971105521     0.226757037     0.0136465881    0.0721875876     0.0136468384     0.072187404      -0.98683113     0.143744912
6.875               -0.970644854     0.228530658     0.0138641984    0.0727406751     0.0138644514     0.072740462     -0.986620765     0.144883047
6.93                -0.970180697     0.230302989     0.0140834428    0.0732930769     0.0140836977    0.0732928342     -0.986408786     0.146020691
6.985               -0.969713055     0.232074022     0.0143043188    0.0738447883     0.0143045745    0.0738445158     -0.986195192      0.14715784
7.04                -0.969241931     0.233843748     0.0145268237    0.0743958043     0.0145270793     0.074395502     -0.985979988     0.148294491
7.095               -0.968767332     0.235612156     0.0147509548      0.07494612     0.0147512093     0.074945788     -0.985763172     0.149430639
7.15                -0.968289261     0.237379238     0.0149767094    0.0754957307      0.014976962    0.0754953688     -0.985544749     0.150566282
7.205               -0.967807724     0.239144985     0.0152040848    0.0760446313     0.0152043345    0.0760442398     -0.985324718     0.151701416
7.26                -0.967322725     0.240909388     0.0154330783    0.0765928171     0.0154333241    0.0765923961     -0.985103083     0.152836037
7.315               -0.966834269     0.242672437     0.0156636871    0.0771402833     0.0156639282    0.0771398329     -0.984879844     0.153970143
7.37                -0.966342362     0.244434124     0.0158959085     0.077687025     0.0158961439    0.0776865456     -0.984655003     0.155103729
7.425               -0.965847008      0.24619444     0.0161297397    0.0782330374     0.0161299686    0.0782325292     -0.984428562     0.156236793
7.48                -0.965348213     0.247953375     0.0163651778    0.0787783158     0.0163653993    0.0787777792     -0.984200523      0.15736933
7.535                -0.96484598     0.249710921     0.0166022202    0.0793228554     0.0166024334    0.0793222907     -0.983970888     0.158501337
7.59                -0.964340316     0.251467069     0.0168408639    0.0798666513      0.016841068     0.079866059     -0.983739658     0.159632811
7.645               -0.963831226     0.253221809     0.0170811061     0.080409699     0.0170813004    0.0804090795     -0.983506835     0.160763749
7.7                 -0.963318714     0.254975133     0.0173229439    0.0809519935     0.0173231275    0.0809513474     -0.983272421     0.161894147
7.755               -0.962802785     0.256727032     0.0175663746    0.0814935303     0.0175665467    0.0814928581     -0.983036417     0.163024001
7.81                -0.962283446     0.258477498     0.0178113951    0.0820343046     0.0178115551    0.0820336068     -0.982798826     0.164153308
7.865               -0.961760701      0.26022652     0.0180580026    0.0825743117     0.0180581497    0.0825735889     -0.982559649     0.165282066
7.92                -0.961234555     0.261974091     0.0183061941    0.0831135468     0.0183063277    0.0831127998     -0.982318889     0.166410269
7.975               -0.960705014     0.263720202     0.0185559667    0.0836520055     0.0185560861    0.0836512348     -0.982076546     0.167537916
8.03                -0.960172083     0.265464843     0.0188073174    0.0841896829     0.0188074221    0.0841888893     -0.981832623     0.168665002
8.085               -0.959635767     0.267208007     0.0190602434    0.0847265745     0.0190603326    0.0847257586     -0.981587122     0.169791525
8.14                -0.959096071     0.268949684     0.0193147415    0.0852626756     0.0193148148    0.0852618382     -0.981340044     0.170917481
8.195               -0.958553002     0.270689866     0.0195708087    0.0857979816     0.0195708656    0.0857971235     -0.981091392     0.172042866
8.25                -0.958006564     0.272428544     0.0198284421    0.0863324879     0.0198284821    0.0863316098     -0.980841167     0.173167677
8.305               -0.957456763     0.274165709     0.0200876386      0.08686619     0.0200876613    0.0868652927     -0.980589371     0.174291912
8.36                -0.956903605     0.275901353     0.0203483952    0.0873990831     0.0203484001    0.0873981676     -0.980336007     0.175415566
8.415               -0.956347094     0.277635467     0.0206107088    0.0879311629     0.0206106955    0.0879302298     -0.980081075     0.176538636
8.47                -0.955787237     0.279368043     0.0208745762    0.0884624248     0.0208745445    0.0884614749     -0.979824578     0.177661119
8.525               -0.955224039     0.281099072     0.0211399944    0.0889928641     0.0211399439    0.0889918984     -0.979566518     0.178783012
8.58                -0.954657505     0.282828546     0.0214069604    0.0895224765     0.0214068908    0.0895214958     -0.979306897     0.179904311
8.635               -0.954087641     0.284556456     0.0216754708    0.0900512573     0.0216753819    0.0900502625     -0.979045717     0.181025013
8.69                -0.953514454     0.286282793     0.0219455227    0.0905792022     0.0219454143     0.090578194      -0.97878298     0.182145116
8.745               -0.952937947     0.288007549     0.0222171129    0.0911063066     0.0222169847     0.091105286     -0.978518687     0.183264614
8.8                 -0.952358128     0.289730716      0.022490238    0.0916325662     0.0224900901    0.0916315339     -0.978252841     0.184383506
8.855               -0.951775002     0.291452286     0.0227648951    0.0921579763     0.0227647272    0.0921569333     -0.977985444     0.185501788
8.91                -0.951188574     0.293172249     0.0230410808    0.0926825327     0.0230408929    0.0926814798     -0.977716497     0.186619457
8.965               -0.950598851     0.294890598      0.023318792    0.0932062308     0.0233185839     0.093205169     -0.977446004      0.18773651
9.02                -0.950005839     0.296607324     0.0235980254    0.0937290664     0.0235977972    0.0937279963     -0.977173965     0.188852943
9.075               -0.949409542     0.298322419     0.0238787778     0.094251035     0.0238785295    0.0942499576     -0.976900383     0.189968753
9.13                -0.948809967     0.300035875     0.0241610458    0.0947721322     0.0241607774    0.0947710483      -0.97662526     0.191083937
9.185                -0.94820712     0.301747683     0.0244448263    0.0952923537     0.0244445379    0.0952912641     -0.976348597     0.192198491
9.24                -0.947601007     0.303457836     0.0247301159    0.0958116951     0.0247298075    0.0958106007     -0.976070398     0.193312414
9.295               -0.946991633     0.305166324     0.0250169113    0.0963301522     0.0250165831    0.0963290537     -0.975790664       0.1944257
9.35                -0.946379005     0.306873141     0.0253052091    0.0968477206     0.0253048613    0.0968466188     -0.975509397     0.195538348
9.405               -0.945763129     0.308578277     0.0255950062     0.097364396     0.0255946388    0.0973632917     -0.975226599     0.196650354
9.46                 -0.94514401     0.310281725      0.025886299    0.0978801742     0.0258859123    0.0978790682     -0.974942272     0.197761715
9.515               -0.944521655     0.311983477     0.0261790843    0.0983950508     0.0261786784    0.0983939438     -0.974656419     0.198872427
9.57                 -0.94389607     0.313683524     0.0264733586    0.0989090217     0.0264729338    0.0989079144     -0.974369042     0.199982488
9.625                -0.94326726     0.315381858     0.0267691186    0.0994220825     0.0267686752    0.0994209758     -0.974080142     0.201091895
9.68                -0.942635233     0.317078472     0.0270663608    0.0999342291      0.027065899    0.0999331236     -0.973789722     0.202200644
9.735               -0.941999993     0.318773357     0.0273650819     0.100445457     0.0273646019     0.100444354     -0.973497784     0.203308732
9.79                -0.941361548     0.320466506     0.0276652783     0.100955763     0.0276647806     0.100954662     -0.973204331     0.204416157
9.845               -0.940719904     0.322157911     0.0279669467     0.101465142     0.0279664315     0.101464044     -0.972909363     0.205522914
9.9                 -0.940075066     0.323847563     0.0282700836     0.101973589     0.0282695512     0.101972495     -0.972612884     0.206629002
9.955               -0.939427041     0.325535455     0.0285746855     0.102481102     0.0285741362     0.102480013     -0.972314896     0.207734416
10.01               -0.938775835     0.327221579     0.0288807489     0.102987676     0.0288801832     0.102986591       -0.9720154     0.208839154
10.065              -0.938121455     0.328905928     0.0291882704     0.103493306     0.0291876885     0.103492227       -0.9717144     0.209943213
10.12               -0.937463906     0.330588492     0.0294972463     0.103997989     0.0294966487     0.103996916     -0.971411897      0.21104659
10.175              -0.936803196     0.332269266     0.0298076732      0.10450172     0.0298070603     0.104500654     -0.971107893     0.212149282
10.23                -0.93613933      0.33394824     0.0301195476     0.105004496     0.0301189197     0.105003437     -0.970802391     0.213251285
10.285              -0.935472315     0.335625407     0.0304328658     0.105506312     0.0304322234     0.105505261     -0.970495393     0.214352597
10.34               -0.934802157     0.337300761     0.0307476243     0.106007164     0.0307469679     0.106006122     -0.970186901     0.215453215
10.395              -0.934128863     0.338974292     0.0310638196     0.106507049     0.0310631495     0.106506016     -0.969876918     0.216553135
10.45               -0.933452439     0.340645993      0.031381448     0.107005962     0.0313807646     0.107004938     -0.969565445     0.217652355