! TOUCHSTONE file generated by CST MICROWAVE STUDIO
! Date and time: Thu Oct 06 01:07:45 2016
! Project name: tomas_icrh_linear_2016-plasma-Rdiel=200.cst
! Header version: 2015
! Port assignment regex: !\s*Touchstone port\s*([0-9]+)\s*=\s*CST MWS port\s*([0-9]+)\s*\(\"(.*)\"\)(\s*mode\s*([0-9]+))?.*
! Touchstone port assignment:
! Touchstone port 1 = CST MWS port 1 ("")
! Touchstone port 2 = CST MWS port 2 ("")
# MHZ S MA R 50
0                       0.999995             180     2.89505e-006        -147.344     2.89511e-006        -147.345         0.999995            -180  
0.05                    0.999994         179.903      0.000541913         90.1883      0.000541913         90.1883         0.999994         179.939  
0.1                     0.999993         179.806       0.00108539         89.9803       0.00108539         89.9803         0.999993         179.878  
0.15                    0.999992         179.709       0.00162874         89.8584       0.00162874         89.8584         0.999992         179.817  
0.2                      0.99999         179.612         0.002172          89.758         0.002172          89.758         0.999991         179.755  
0.25                    0.999988         179.515       0.00271518         89.6662       0.00271518         89.6662         0.999989         179.694  
0.3                     0.999985         179.418       0.00325828         89.5787       0.00325828         89.5787         0.999987         179.633  
0.35                    0.999983         179.321       0.00380129         89.4936       0.00380129         89.4936         0.999985         179.572  
0.4                      0.99998         179.224       0.00434421         89.4101       0.00434421         89.4101         0.999982         179.511  
0.45                    0.999977         179.127       0.00488705         89.3276       0.00488705         89.3276         0.999979          179.45  
0.5                     0.999973          179.03        0.0054298         89.2458        0.0054298         89.2458         0.999976         179.388  
0.55                     0.99997         178.934       0.00597246         89.1645       0.00597246         89.1645         0.999972         179.327  
0.6                     0.999965         178.837       0.00651503         89.0836       0.00651503         89.0836         0.999968         179.266  
0.65                    0.999961          178.74       0.00705751          89.003       0.00705751          89.003         0.999964         179.205  
0.7                     0.999956         178.643        0.0075999         88.9227        0.0075999         88.9227          0.99996         179.144  
0.75                    0.999951         178.546       0.00814219         88.8425       0.00814219         88.8425         0.999955         179.083  
0.8                     0.999946          178.45        0.0086844         88.7625        0.0086844         88.7625          0.99995         179.022  
0.85                    0.999941         178.353       0.00922651         88.6827       0.00922651         88.6827         0.999945         178.961  
0.9                     0.999935         178.256       0.00976852         88.6029       0.00976852         88.6029         0.999939           178.9  
0.95                    0.999929          178.16        0.0103104         88.5232        0.0103104         88.5232         0.999933         178.839  
1                       0.999922         178.063        0.0108523         88.4436        0.0108523         88.4436         0.999927         178.778  
1.05                    0.999916         177.966         0.011394         88.3641         0.011394         88.3641         0.999921         178.717  
1.1                     0.999909          177.87        0.0119356         88.2846        0.0119356         88.2846         0.999914         178.656  
1.15                    0.999901         177.773        0.0124772         88.2052        0.0124772         88.2052         0.999907         178.595  
1.2                     0.999894         177.676        0.0130186         88.1259        0.0130186         88.1259         0.999899         178.534  
1.25                    0.999886          177.58        0.0135599         88.0465        0.0135599         88.0465         0.999892         178.473  
1.3                     0.999878         177.483        0.0141012         87.9672        0.0141012         87.9672         0.999884         178.412  
1.35                    0.999869         177.387        0.0146423          87.888        0.0146423          87.888         0.999875         178.351  
1.4                      0.99986          177.29        0.0151833         87.8087        0.0151833         87.8087         0.999867          178.29  
1.45                    0.999851         177.193        0.0157243         87.7295        0.0157243         87.7295         0.999858         178.229  
1.5                     0.999842         177.097        0.0162651         87.6504        0.0162651         87.6504         0.999849         178.168  
1.55                    0.999832             177        0.0168058         87.5712        0.0168058         87.5712         0.999839         178.107  
1.6                     0.999822         176.904        0.0173464         87.4921        0.0173464         87.4921          0.99983         178.046  
1.65                    0.999812         176.807        0.0178869          87.413        0.0178869          87.413          0.99982         177.986  
1.7                     0.999801         176.711        0.0184273         87.3339        0.0184273         87.3339         0.999809         177.925  
1.75                     0.99979         176.615        0.0189676         87.2548        0.0189676         87.2548         0.999799         177.864  
1.8                     0.999779         176.518        0.0195078         87.1757        0.0195078         87.1757         0.999788         177.803  
1.85                    0.999767         176.422        0.0200479         87.0967        0.0200479         87.0967         0.999777         177.742  
1.9                     0.999756         176.325        0.0205879         87.0176        0.0205879         87.0176         0.999765         177.681  
1.95                    0.999743         176.229        0.0211278         86.9386        0.0211278         86.9386         0.999753         177.621  
2                       0.999731         176.133        0.0216675         86.8596        0.0216675         86.8596         0.999741          177.56  
2.05                    0.999718         176.036        0.0222071         86.7806        0.0222071         86.7806         0.999729         177.499  
2.1                     0.999705          175.94        0.0227467         86.7016        0.0227467         86.7016         0.999716         177.438  
2.15                    0.999692         175.844        0.0232861         86.6226        0.0232861         86.6226         0.999703         177.377  
2.2                     0.999678         175.748        0.0238254         86.5436        0.0238254         86.5436          0.99969         177.317  
2.25                    0.999664         175.651        0.0243646         86.4647        0.0243646         86.4647         0.999676         177.256  
2.3                      0.99965         175.555        0.0249037         86.3857        0.0249037         86.3857         0.999663         177.195  
2.35                    0.999636         175.459        0.0254426         86.3068        0.0254426         86.3068         0.999649         177.135  
2.4                     0.999621         175.363        0.0259815         86.2279        0.0259815         86.2279         0.999634         177.074  
2.45                    0.999606         175.267        0.0265202         86.1489        0.0265202         86.1489         0.999619         177.013  
2.5                      0.99959          175.17        0.0270588           86.07        0.0270588           86.07         0.999604         176.952  
2.55                    0.999574         175.074        0.0275973         85.9911        0.0275973         85.9911         0.999589         176.892  
2.6                     0.999558         174.978        0.0281356         85.9122        0.0281356         85.9122         0.999573         176.831  
2.65                    0.999542         174.882        0.0286739         85.8333        0.0286739         85.8333         0.999558         176.771  
2.7                     0.999525         174.786         0.029212         85.7545         0.029212         85.7545         0.999541          176.71  
2.75                    0.999508          174.69          0.02975         85.6756          0.02975         85.6756         0.999525         176.649  
2.8                     0.999491         174.594        0.0302879         85.5967        0.0302879         85.5967         0.999508         176.589  
2.85                    0.999473         174.498        0.0308257         85.5179        0.0308257         85.5179         0.999491         176.528  
2.9                     0.999455         174.402        0.0313633          85.439        0.0313633          85.439         0.999474         176.468  
2.95                    0.999437         174.306        0.0319008         85.3602        0.0319008         85.3602         0.999456         176.407  
3                       0.999418          174.21        0.0324382         85.2813        0.0324382         85.2813         0.999438         176.346  
3.05                      0.9994         174.114        0.0329755         85.2025        0.0329755         85.2025          0.99942         176.286  
3.1                      0.99938         174.018        0.0335126         85.1237        0.0335126         85.1237         0.999401         176.225  
3.15                    0.999361         173.922        0.0340496         85.0449        0.0340496         85.0449         0.999383         176.165  
3.2                     0.999341         173.826        0.0345865         84.9661        0.0345865         84.9661         0.999363         176.104  
3.25                    0.999321          173.73        0.0351233         84.8873        0.0351232         84.8873         0.999344         176.044  
3.3                     0.999301         173.634        0.0356599         84.8085        0.0356599         84.8085         0.999324         175.983  
3.35                     0.99928         173.538        0.0361964         84.7297        0.0361964         84.7297         0.999304         175.923  
3.4                     0.999259         173.443        0.0367327         84.6509        0.0367327         84.6509         0.999284         175.862  
3.45                    0.999237         173.347         0.037269         84.5721         0.037269         84.5721         0.999264         175.802  
3.5                     0.999216         173.251        0.0378051         84.4934        0.0378051         84.4934         0.999243         175.742  
3.55                    0.999194         173.155         0.038341         84.4146         0.038341         84.4146         0.999222         175.681  
3.6                     0.999171         173.059        0.0388769         84.3359        0.0388769         84.3359           0.9992         175.621  
3.65                    0.999149         172.964        0.0394126         84.2571        0.0394126         84.2571         0.999178          175.56  
3.7                     0.999126         172.868        0.0399481         84.1784        0.0399481         84.1784         0.999156           175.5  
3.75                    0.999103         172.772        0.0404836         84.0996        0.0404836         84.0996         0.999134          175.44  
3.8                     0.999079         172.677        0.0410189         84.0209        0.0410189         84.0209         0.999111         175.379  
3.85                    0.999055         172.581         0.041554         83.9422         0.041554         83.9422         0.999089         175.319  
3.9                     0.999031         172.485         0.042089         83.8635         0.042089         83.8635         0.999065         175.259  
3.95                    0.999007          172.39        0.0426239         83.7848        0.0426239         83.7848         0.999042         175.198  
4                       0.998982         172.294        0.0431587          83.706        0.0431587          83.706         0.999018         175.138  
4.05                    0.998957         172.199        0.0436933         83.6273        0.0436933         83.6274         0.998994         175.078  
4.1                     0.998931         172.103        0.0442277         83.5487        0.0442277         83.5487          0.99897         175.017  
4.15                    0.998905         172.007         0.044762           83.47         0.044762           83.47         0.998945         174.957  
4.2                     0.998879         171.912        0.0452962         83.3913        0.0452962         83.3913          0.99892         174.897  
4.25                    0.998853         171.816        0.0458303         83.3126        0.0458303         83.3126         0.998895         174.837  
4.3                     0.998826         171.721        0.0463642          83.234        0.0463642          83.234         0.998869         174.776  
4.35                    0.998799         171.626        0.0468979         83.1553        0.0468979         83.1553         0.998844         174.716  
4.4                     0.998772          171.53        0.0474315         83.0766        0.0474315         83.0766         0.998818         174.656  
4.45                    0.998744         171.435         0.047965          82.998         0.047965          82.998         0.998791         174.596  
4.5                     0.998716         171.339        0.0484983         82.9194        0.0484983         82.9194         0.998765         174.536  
4.55                    0.998688         171.244        0.0490315         82.8407        0.0490315         82.8407         0.998738         174.475  
4.6                     0.998659         171.148        0.0495645         82.7621        0.0495645         82.7621          0.99871         174.415  
4.65                     0.99863         171.053        0.0500974         82.6835        0.0500974         82.6835         0.998683         174.355  
4.7                     0.998601         170.958        0.0506301         82.6049        0.0506301         82.6049         0.998655         174.295  
4.75                    0.998571         170.862        0.0511627         82.5263        0.0511627         82.5263         0.998627         174.235  
4.8                     0.998541         170.767        0.0516952         82.4477        0.0516952         82.4477         0.998598         174.175  
4.85                    0.998511         170.672        0.0522275         82.3691        0.0522274         82.3691          0.99857         174.115  
4.9                      0.99848         170.577        0.0527596         82.2905        0.0527596         82.2905         0.998541         174.055  
4.95                    0.998449         170.481        0.0532916         82.2119        0.0532916         82.2119         0.998512         173.995  
5                       0.998418         170.386        0.0538234         82.1333        0.0538234         82.1333         0.998482         173.935  
5.05                    0.998387         170.291        0.0543551         82.0547        0.0543551         82.0547         0.998452         173.875  
5.1                     0.998355         170.196        0.0548866         81.9762        0.0548866         81.9762         0.998422         173.815  
5.15                    0.998322           170.1        0.0554224          81.897        0.0554224          81.897         0.998391         173.754  
5.2                     0.998289         170.004        0.0559581         81.8178        0.0559581         81.8178          0.99836         173.694  
5.25                    0.998256         169.908        0.0564937         81.7386        0.0564937         81.7386         0.998329         173.633  
5.3                     0.998223         169.812        0.0570293         81.6593        0.0570293         81.6593         0.998297         173.573  
5.35                    0.998189         169.716        0.0575648         81.5801        0.0575648         81.5801         0.998266         173.512  
5.4                     0.998155          169.62        0.0581002         81.5009        0.0581002         81.5009         0.998233         173.452  
5.45                     0.99812         169.524        0.0586355         81.4216        0.0586355         81.4216         0.998201         173.391  
5.5                     0.998086         169.428        0.0591708         81.3424        0.0591708         81.3424         0.998168         173.331  
5.55                     0.99805         169.333         0.059706         81.2631         0.059706         81.2631         0.998135          173.27  
5.6                     0.998015         169.237        0.0602411         81.1839        0.0602411         81.1839         0.998102          173.21  
5.65                    0.997979         169.141        0.0607761         81.1046        0.0607761         81.1046         0.998068         173.149  
5.7                     0.997943         169.045        0.0613111         81.0254        0.0613111         81.0254         0.998034         173.089  
5.75                    0.997906         168.949         0.061846         80.9461         0.061846         80.9461            0.998         173.028  
5.8                      0.99787         168.853        0.0623808         80.8668        0.0623808         80.8668         0.997965         172.968  
5.85                    0.997832         168.757        0.0629155         80.7875        0.0629155         80.7875          0.99793         172.907  
5.9                     0.997795         168.661        0.0634501         80.7082        0.0634501         80.7082         0.997895         172.847  
5.95                    0.997757         168.566        0.0639847         80.6289        0.0639847         80.6289          0.99786         172.786  
6                       0.997719          168.47        0.0645192         80.5496        0.0645192         80.5496         0.997824         172.726  
6.05                     0.99768         168.374        0.0650536         80.4703        0.0650536         80.4703         0.997788         172.666  
6.1                     0.997641         168.278        0.0655879          80.391        0.0655879          80.391         0.997751         172.605  
6.15                    0.997602         168.182        0.0661221         80.3117        0.0661221         80.3117         0.997715         172.545  
6.2                     0.997562         168.086        0.0666562         80.2324        0.0666562         80.2324         0.997678         172.484  
6.25                    0.997522         167.991        0.0671903          80.153        0.0671903          80.153         0.997641         172.424  
6.3                     0.997482         167.895        0.0677243         80.0737        0.0677243         80.0737         0.997603         172.363  
6.35                    0.997441         167.799        0.0682581         79.9943        0.0682581         79.9943         0.997565         172.303  
6.4                       0.9974         167.703        0.0687919          79.915        0.0687919          79.915         0.997527         172.243  
6.45                    0.997359         167.607        0.0693256         79.8356        0.0693256         79.8356         0.997488         172.182  
6.5                     0.997317         167.511        0.0698593         79.7563        0.0698593         79.7563          0.99745         172.122  
6.55                    0.997275         167.416        0.0703928         79.6769        0.0703928         79.6769         0.997411         172.061  
6.6                     0.997233          167.32        0.0709262         79.5975        0.0709262         79.5975         0.997371         172.001  
6.65                     0.99719         167.224        0.0714596         79.5181        0.0714596         79.5181         0.997332         171.941  
6.7                     0.997147         167.128        0.0719928         79.4388        0.0719928         79.4388         0.997292          171.88  
6.75                    0.997104         167.033         0.072526         79.3594         0.072526         79.3594         0.997251          171.82  
6.8                      0.99706         166.937        0.0730591           79.28        0.0730591           79.28         0.997211          171.76  
6.85                    0.997016         166.841         0.073592         79.2006         0.073592         79.2006          0.99717         171.699  
6.9                     0.996971         166.745        0.0741249         79.1212        0.0741249         79.1212         0.997129         171.639  
6.95                    0.996926          166.65        0.0746577         79.0417        0.0746577         79.0417         0.997087         171.578  
7                       0.996881         166.554        0.0751904         78.9623        0.0751904         78.9623         0.997045         171.518  
7.05                    0.996836         166.458         0.075723         78.8829         0.075723         78.8829         0.997003         171.458  
7.1                      0.99679         166.362        0.0762555         78.8035        0.0762555         78.8035         0.996961         171.397  
7.15                    0.996743         166.267        0.0767879          78.724        0.0767879          78.724         0.996918         171.337  
7.2                     0.996697         166.171        0.0773202         78.6446        0.0773202         78.6446         0.996875         171.277  
7.25                     0.99665         166.075        0.0778524         78.5651        0.0778524         78.5651         0.996832         171.216  
7.3                     0.996602         165.979        0.0783845         78.4857        0.0783845         78.4857         0.996788         171.156  
7.35                    0.996555         165.884        0.0789165         78.4062        0.0789165         78.4062         0.996744         171.096  
7.4                     0.996507         165.788        0.0794484         78.3267        0.0794484         78.3267           0.9967         171.035  
7.45                    0.996458         165.692        0.0799802         78.2472        0.0799802         78.2472         0.996656         170.975  
7.5                     0.996409         165.597        0.0805119         78.1678        0.0805119         78.1678         0.996611         170.915  
7.55                     0.99636         165.501        0.0810435         78.0883        0.0810435         78.0883         0.996566         170.855  
7.6                     0.996311         165.405         0.081575         78.0088         0.081575         78.0088          0.99652         170.794  
7.65                    0.996261          165.31        0.0821064         77.9293        0.0821064         77.9293         0.996475         170.734  
7.7                      0.99621         165.214        0.0826377         77.8498        0.0826377         77.8498         0.996429         170.674  
7.75                     0.99616         165.118        0.0831689         77.7702        0.0831689         77.7702         0.996382         170.613  
7.8                     0.996109         165.023           0.0837         77.6907           0.0837         77.6907         0.996336         170.553  
7.85                    0.996057         164.927         0.084231         77.6112        0.0842309         77.6112         0.996289         170.493  
7.9                     0.996006         164.831        0.0847618         77.5317        0.0847618         77.5317         0.996241         170.433  
7.95                    0.995954         164.736        0.0852926         77.4521        0.0852926         77.4521         0.996194         170.372  
8                       0.995901          164.64        0.0858232         77.3726        0.0858232         77.3726         0.996146         170.312  
8.05                    0.995848         164.545        0.0863538          77.293        0.0863538          77.293         0.996098         170.252  
8.1                     0.995795         164.449        0.0868842         77.2135        0.0868842         77.2135         0.996049         170.192  
8.15                    0.995742         164.353        0.0874145         77.1339        0.0874145         77.1339         0.996001         170.131  
8.2                     0.995688         164.258        0.0879447         77.0543        0.0879447         77.0543         0.995952         170.071  
8.25                    0.995633         164.162        0.0884748         76.9747        0.0884748         76.9747         0.995902         170.011  
8.3                     0.995579         164.067        0.0890048         76.8951        0.0890048         76.8951         0.995853         169.951  
8.35                    0.995524         163.971        0.0895347         76.8156        0.0895347         76.8156         0.995803         169.891  
8.4                     0.995468         163.876        0.0900644          76.736        0.0900644          76.736         0.995752          169.83  
8.45                    0.995412          163.78        0.0905941         76.6563        0.0905941         76.6563         0.995702          169.77  
8.5                     0.995356         163.684        0.0911236         76.5767        0.0911236         76.5767         0.995651          169.71  
8.55                      0.9953         163.589         0.091653         76.4971         0.091653         76.4971           0.9956          169.65  
8.6                     0.995243         163.493        0.0921823         76.4175        0.0921823         76.4175         0.995548          169.59  
8.65                    0.995185         163.398        0.0927115         76.3378        0.0927115         76.3378         0.995496         169.529  
8.7                     0.995128         163.302        0.0932406         76.2582        0.0932406         76.2582         0.995444         169.469  
8.75                     0.99507         163.207        0.0937695         76.1785        0.0937695         76.1785         0.995392         169.409  
8.8                     0.995011         163.111        0.0942983         76.0989        0.0942983         76.0989         0.995339         169.349  
8.85                    0.994952         163.016         0.094827         76.0192         0.094827         76.0192         0.995286         169.289  
8.9                     0.994893          162.92        0.0953556         75.9395        0.0953556         75.9395         0.995233         169.229  
8.95                    0.994833         162.825        0.0958841         75.8599        0.0958841         75.8599         0.995179         169.168  
9                       0.994773         162.729        0.0964125         75.7802        0.0964125         75.7802         0.995125         169.108  
9.05                    0.994713         162.634        0.0969407         75.7005        0.0969407         75.7005         0.995071         169.048  
9.1                     0.994652         162.538        0.0974688         75.6208        0.0974688         75.6208         0.995016         168.988  
9.15                    0.994591         162.443        0.0979968         75.5411        0.0979968         75.5411         0.994961         168.928  
9.2                     0.994529         162.348        0.0985246         75.4614        0.0985246         75.4614         0.994906         168.868  
9.25                    0.994468         162.252        0.0990524         75.3816        0.0990524         75.3816         0.994851         168.808  
9.3                     0.994405         162.157          0.09958         75.3019          0.09958         75.3019         0.994795         168.747  
9.35                    0.994342         162.061         0.100107         75.2221         0.100107         75.2221         0.994739         168.687  
9.4                     0.994279         161.966         0.100635         75.1424         0.100635         75.1424         0.994682         168.627  
9.45                    0.994216          161.87         0.101162         75.0626         0.101162         75.0626         0.994626         168.567  
9.5                     0.994152         161.775         0.101689         74.9829         0.101689         74.9829         0.994569         168.507  
9.55                    0.994088          161.68         0.102216         74.9031         0.102216         74.9031         0.994511         168.447  
9.6                     0.994023         161.584         0.102743         74.8233         0.102743         74.8233         0.994454         168.387  
9.65                    0.993958         161.489          0.10327         74.7435          0.10327         74.7435         0.994396         168.327  
9.7                     0.993892         161.394         0.103796         74.6637         0.103796         74.6637         0.994337         168.267  